<?xml version="1.0"?>
<VTKFile type="UnstructuredGrid" version="0.1" byte_order="LittleEndian" header_type="UInt32" compressor="vtkZLibDataCompressor">
  <UnstructuredGrid>
    <Piece NumberOfPoints="27" NumberOfCells="8">
      <PointData>
        <DataArray type="Float64" Name="Displacements" NumberOfComponents="3" format="ascii" RangeMin="0" RangeMax="0.00010747719153">
          2.7850912918e-05 2.7850912918e-05 0 0 2.7850912919e-05 0
          2.7850912919e-05 0 0 0 0 0
          0 0 0.0001 0 2.7850912911e-05 0.0001
          2.7850912911e-05 0 0.0001 2.7850912913e-05 2.7850912912e-05 0.0001
          2.7850912915e-05 0 5.0000000002e-05 1.3925456456e-05 0 0.0001
          0 0 5.0000000002e-05 1.392545646e-05 0 0
          2.7850912919e-05 1.3925456459e-05 0 0 1.392545646e-05 0
          0 2.7850912915e-05 5.0000000002e-05 1.3925456456e-05 2.7850912911e-05 0.0001
          2.7850912915e-05 2.7850912915e-05 5.0000000002e-05 1.3925456459e-05 2.7850912919e-05 0
          2.7850912912e-05 1.3925456456e-05 0.0001 0 1.3925456456e-05 0.0001
          1.3925456458e-05 2.7850912915e-05 5.0000000002e-05 1.3925456459e-05 1.3925456459e-05 0
          1.3925456458e-05 0 5.0000000002e-05 1.3925456456e-05 1.3925456456e-05 0.0001
          0 1.3925456458e-05 5.0000000002e-05 2.7850912915e-05 1.3925456458e-05 5.0000000002e-05
          1.3925456458e-05 1.3925456458e-05 5.0000000002e-05
        </DataArray>
      </PointData>
      <CellData>
      </CellData>
      <Points>
        <DataArray type="Float32" Name="Points" NumberOfComponents="3" format="ascii" RangeMin="0" RangeMax="1.7320508076">
          0 0 0 1 0 0
          0 1 0 1 1 0
          1 1 1 1 0 1
          0 1 1 0 0 1
          0 1 0.5 0.5 1 1
          1 1 0.5 0.5 1 0
          0 0.5 0 1 0.5 0
          1 0 0.5 0.5 0 1
          0 0 0.5 0.5 0 0
          0 0.5 1 1 0.5 1
          0.5 0 0.5 0.5 0.5 0
          0.5 1 0.5 0.5 0.5 1
          1 0.5 0.5 0 0.5 0.5
          0.5 0.5 0.5
        </DataArray>
      </Points>
      <Cells>
        <DataArray type="Int64" Name="connectivity" format="ascii" RangeMin="0" RangeMax="26">
          20 14 1 17 26 24
          13 21 26 24 13 21
          22 10 3 11 16 20
          17 0 25 26 21 12
          25 26 21 12 8 22
          11 2 15 5 14 20
          23 19 24 26 23 19
          24 26 9 4 10 22
          7 15 20 16 18 23
          26 25 18 23 26 25
          6 9 22 8
        </DataArray>
        <DataArray type="Int64" Name="offsets" format="ascii" RangeMin="8" RangeMax="64">
          8 16 24 32 40 48
          56 64
        </DataArray>
        <DataArray type="UInt8" Name="types" format="ascii" RangeMin="12" RangeMax="12">
          12 12 12 12 12 12
          12 12
        </DataArray>
      </Cells>
    </Piece>
  </UnstructuredGrid>
</VTKFile>
